integrator              = steep
nsteps                  = 5000
emtol                   = 100
emstep                  = 0.01
cutoff-scheme           = Verlet
nstlist                 = 20
rlist                   = 1.1
coulombtype             = reaction-field
rcoulomb                = 1.1
epsilon_r               = 15
vdwtype                 = cutoff
rvdw                    = 1.1
pbc                     = xyz
